12
	Energy:      16.2269668
C         -8.01002        3.21518       -0.00000
C         -8.08858        1.82256       -0.00000
C         -6.76471        3.84345       -0.00000
C         -5.59795        3.07910       -0.00000
C         -5.67651        1.68649       -0.00000
C         -6.92183        1.05822       -0.00000
H         -8.91906        3.81069        0.00000
H         -6.70350        4.92845       -0.00000
H         -6.98304       -0.02678       -0.00000
H         -9.05883        1.33307       -0.00000
H         -4.62770        3.56860       -0.00000
H         -4.76747        1.09098       -0.00000
