6
	Energy:       8.2000964
C         -7.31003        4.16372        0.00000
C         -7.32800        2.82805        0.00000
H         -6.55331        4.71348        0.55084
H         -8.05170        4.73363       -0.55084
H         -6.58633        2.25814        0.55084
H         -8.08473        2.27830       -0.55084
