18
	Energy:      31.1328358
C         -8.25531        3.95887        0.00000
C         -8.44563        2.58013       -0.00000
C         -6.96225        4.48474        0.00000
H         -9.11269        4.62671       -0.00000
C         -7.34341        1.72361        0.00000
H         -9.45188        2.16954       -0.00000
C         -6.03588        2.23621        0.00000
H         -7.51213        0.64921        0.00000
C         -5.84251        3.63706        0.00000
H         -6.83359        5.56467        0.00000
C         -4.53498        4.14967        0.00000
C         -3.43276        3.29315        0.00000
C         -3.62309        1.91441        0.00000
C         -4.91614        1.38854        0.00000
H         -4.36626        5.22407        0.00000
H         -2.42651        3.70373        0.00000
H         -2.76571        1.24656        0.00000
H         -5.04480        0.30861        0.00000
