12
	Energy:     -96.5076597
C         -6.48928        3.31273        0.00000
C         -6.49174        1.97779        0.00000
C         -5.19246        4.01971       -0.00000
N         -4.07853        3.22821        0.00000
C         -4.08270        1.86179        0.00000
N         -5.32009        1.27458        0.00000
H         -7.38908        3.91251       -0.00000
H         -7.40989        1.39923        0.00000
O         -5.14299        5.24402       -0.00000
H         -3.18125        3.68622        0.00000
O         -3.05029        1.20030        0.00000
H         -5.32508        0.26064        0.00000
